ITEM: TIMESTEP
0
ITEM: NUMBER OF ATOMS
54000
ITEM: BOX BOUNDS pp pp pp
9.4306882046139117e+02 1.0569311795370809e+03
9.4306882046139117e+02 1.0569311795370809e+03
9.4306882046139117e+02 1.0569311795370809e+03
ITEM: ATOMS id mol type x y z 
21934 11 1 945.798 945.268 949.392 
21935 11 1 945.162 944.956 948.05 
36821 19 1 944.825 948.519 944.713 
37255 19 1 948.115 945.831 944.385 
37257 19 1 949.633 947.672 945.447 
37256 19 1 948.535 946.607 945.678 
37258 19 1 949.654 948.594 946.58 
37254 19 1 947.103 944.706 944.779 
21936 11 1 943.733 944.552 948.422 
36819 19 1 944.15 946.696 943.435 
36820 19 1 943.927 947.332 944.829 
37253 19 1 946.661 943.895 943.557 
21933 11 1 946.196 944 950.01 
36825 19 1 946.594 949.801 948.552 
36824 19 1 945.833 950.719 947.572 
36823 19 1 945.88 950.294 946.172 
36822 19 1 944.979 949.035 946.118 
24763 13 1 947.414 954.176 949.386 
24755 13 1 945.758 953.348 943.503 
24762 13 1 948.894 954.328 949.348 
24756 13 1 947.059 953.699 944.279 
24757 13 1 948.281 954.209 943.469 
24759 13 1 949.429 954.087 945.641 
24761 13 1 949.459 953.862 948.076 
36826 19 1 946.585 950.404 949.934 
24760 13 1 949.041 954.788 946.925 
46646 24 1 943.368 957.268 947.967 
24758 13 1 949.201 954.936 944.418 
46641 24 1 947.385 959.298 943.616 
46643 24 1 946.116 958.359 945.656 
46642 24 1 946.617 958.12 944.171 
46645 24 1 944.239 958.259 947.222 
46644 24 1 944.875 957.572 946.014 
23906 12 1 948.441 963.456 947.74 
23905 12 1 947.957 964.799 947.304 
23907 12 1 947.223 962.615 948.302 
23904 12 1 949.112 965.605 946.656 
23903 12 1 949.227 965.058 945.236 
53414 27 1 945.384 962.808 943.512 
23908 12 1 947.592 961.183 948.668 
53415 27 1 945.219 964.304 943.818 
49334 25 1 943.199 963.073 947.607 
23909 12 1 948.303 961.04 950.045 
49346 25 1 943.551 970.812 946.143 
53430 27 1 948.025 969.957 945.75 
53431 27 1 949.2 970.005 946.771 
53429 27 1 947.92 971.434 945.346 
49714 25 1 946.827 968.594 950.118 
49715 25 1 945.256 968.615 950.086 
21928 11 1 945.111 946.128 955.755 
21930 11 1 945.872 945.28 953.564 
21927 11 1 946.384 946.913 956.089 
21929 11 1 944.818 946.15 954.231 
21931 11 1 945.685 945.334 952.071 
21932 11 1 946.749 944.457 951.337 
36848 19 1 943.246 948.601 951.556 
22226 12 1 949.37 943.347 954.027 
36829 19 1 948.48 949.14 952.911 
36828 19 1 947.673 950.054 951.988 
36843 19 1 943.561 951.123 956.18 
36831 19 1 949.474 951.266 953.735 
36830 19 1 948.591 950.049 954.131 
24765 13 1 947.598 954.232 951.914 
24766 13 1 946.658 954.445 953.084 
36832 19 1 949.569 952.175 954.955 
36827 19 1 947.456 949.448 950.646 
36842 19 1 944.23 952.275 956.767 
24767 13 1 946.301 955.876 953.355 
24768 13 1 947.408 956.647 954.046 
24764 13 1 946.968 954.873 950.639 
24769 13 1 947.2 956.475 955.526 
24770 13 1 948.385 957.038 956.248 
46648 24 1 943.121 958.564 950.326 
23910 12 1 947.494 961.389 951.307 
46653 24 1 944.416 960.288 954.853 
46654 24 1 944.533 961.125 956.122 
23912 12 1 948.247 961.173 953.807 
23911 12 1 948.582 961.657 952.361 
46651 24 1 943.635 960.549 952.396 
23913 12 1 949.459 961.482 954.612 
49666 25 1 947.382 964.982 956.073 
46652 24 1 943.738 961.135 953.756 
49665 25 1 946.008 964.836 955.44 
23914 12 1 949.227 960.622 955.84 
46655 24 1 945.302 960.37 957.243 
49717 25 1 943.243 969.075 951.279 
49716 25 1 944.703 968.929 951.487 
49661 25 1 946.925 969.695 955.108 
49660 25 1 947.679 970.493 954.028 
49664 25 1 945.793 966.044 954.562 
49662 25 1 946.659 968.37 954.466 
49713 25 1 947.091 967.347 950.977 
49711 25 1 949.191 965.942 951.576 
49712 25 1 948.516 966.969 950.643 
49663 25 1 945.983 967.311 955.412 
49719 25 1 943.165 970.344 953.438 
21924 11 1 948.479 946.849 958.76 
21923 11 1 949.414 946.029 959.529 
19385 10 1 944.099 943.156 958.767 
21926 11 1 946.339 947.191 957.551 
21925 11 1 947.201 946.184 958.26 
19383 10 1 945.081 944.224 960.757 
19382 10 1 945.858 944.117 962.012 
19381 10 1 946.35 945.486 962.439 
19380 10 1 946.963 945.475 963.837 
19379 10 1 947.511 946.802 964.329 
36838 19 1 947.31 951.418 959.821 
36839 19 1 946.278 952.528 960.091 
36837 19 1 948.68 951.82 959.222 
36840 19 1 945.75 953.09 958.738 
36841 19 1 945.139 951.902 957.947 
19296 10 1 949.449 950.114 963.227 
19295 10 1 949.456 951.48 964.058 
19294 10 1 948.023 951.923 964.357 
19342 10 1 943.725 956.863 959.211 
24771 13 1 948.351 956.525 957.682 
19343 10 1 943.54 956.921 960.683 
19345 10 1 944.745 956.122 962.682 
19344 10 1 944.483 955.88 961.237 
24772 13 1 949.531 957.016 958.483 
19346 10 1 945.826 955.058 963.016 
19347 10 1 946.422 955.252 964.414 
46657 24 1 946.279 960.59 959.595 
46656 24 1 945.245 961.062 958.592 
46658 24 1 945.977 961.202 960.925 
49667 25 1 947.533 964.376 957.462 
49670 25 1 948.641 965.683 959.805 
46659 24 1 947.038 960.867 961.965 
49668 25 1 946.672 965.073 958.486 
49669 25 1 947.317 964.989 959.843 
49671 25 1 949.352 965.477 961.228 
46661 24 1 945.719 960.848 964.185 
46660 24 1 946.864 961.591 963.364 
46869 24 1 945.179 964.852 964.37 
46681 24 1 943.934 968.752 960.271 
46682 24 1 945.188 968.047 960.796 
46683 24 1 946.168 968.979 961.444 
46961 24 1 949.353 969.864 959.193 
46684 24 1 945.367 969.983 962.291 
46960 24 1 948.142 970.692 958.96 
46685 24 1 946.332 971.19 962.669 
46867 24 1 943.522 966.392 963.95 
46686 24 1 947.64 970.648 963.297 
19378 10 1 947.969 946.578 965.731 
19377 10 1 948.59 947.861 966.489 
19376 10 1 948.681 947.487 967.994 
19327 10 1 943.355 948.105 968.18 
36965 19 1 946.263 943.346 968.882 
19326 10 1 944.077 947.282 969.223 
19375 10 1 949.585 948.296 968.902 
19373 10 1 948.257 947.476 970.878 
36967 19 1 944.104 943.501 970.123 
19325 10 1 943.593 947.784 970.575 
19374 10 1 948.945 948.69 970.251 
36962 19 1 949.186 943.444 971.237 
36964 19 1 946.922 943.481 970.285 
36963 19 1 948.416 943.395 969.987 
19293 10 1 947.264 950.691 964.904 
19292 10 1 945.893 951.314 965.265 
19288 10 1 945.202 954.18 968.481 
19291 10 1 946.059 951.795 966.774 
19290 10 1 944.615 952 967.322 
19316 10 1 949.672 952.747 969.283 
19289 10 1 944.675 952.748 968.666 
19324 10 1 944.087 949.227 970.796 
19318 10 1 948.222 952.888 971.131 
19317 10 1 949.681 952.461 970.779 
19287 10 1 944.064 955.12 968.095 
19286 10 1 944.464 956.519 968.625 
19348 10 1 946.956 956.736 964.591 
19349 10 1 947.428 956.881 966.014 
19352 10 1 949.592 957.263 967.84 
19285 10 1 944.706 956.778 970.163 
19350 10 1 947.966 958.261 966.208 
19351 10 1 948.616 958.449 967.634 
19284 10 1 945.289 958.212 970.434 
19354 10 1 949.678 957.433 970.38 
46662 24 1 945.615 961.559 965.559 
46663 24 1 944.702 960.783 966.505 
46664 24 1 944.443 961.592 967.758 
46870 24 1 945.772 965.621 965.572 
46868 24 1 943.692 965.07 964.579 
46871 24 1 947.208 965.124 965.655 
46702 24 1 943.223 965.714 969.214 
46701 24 1 943.281 967.215 969.623 
46872 24 1 948.07 965.857 966.699 
46873 24 1 948.251 967.245 966.352 
46874 24 1 949.23 967.873 967.365 
46875 24 1 949.598 969.275 966.727 
24399 13 1 943.566 970.608 967.22 
46700 24 1 944.71 967.553 969.774 
46697 24 1 946.936 970.692 970.719 
46699 24 1 945.018 968.933 970.382 
46696 24 1 948.419 970.621 971.037 
46698 24 1 946.532 969.232 970.573 
19372 10 1 947.807 947.728 972.23 
19370 10 1 946.884 946.949 974.342 
19371 10 1 947.376 946.498 973.003 
9607 5 1 949.136 943.725 975.964 
19369 10 1 948.063 947.546 974.99 
19368 10 1 947.609 947.564 976.456 
19367 10 1 948.906 947.849 977.288 
9631 5 1 943.751 945.225 977.554 
9633 5 1 943.44 947.499 976.684 
9632 5 1 943.081 946.584 977.884 
9630 5 1 943.557 944.154 978.642 
19323 10 1 943.74 949.879 972.147 
19320 10 1 946.325 952.694 972.785 
19321 10 1 945.737 951.282 972.518 
19322 10 1 944.261 951.278 972.245 
19319 10 1 947.86 952.55 972.591 
9635 5 1 943.736 949.964 976.08 
19366 10 1 949.321 949.28 977.051 
19365 10 1 948.224 950.236 977.386 
19363 10 1 949.669 952.249 977.865 
19361 10 1 949.079 954.261 976.636 
9634 5 1 943.31 948.922 977.191 
19364 10 1 948.769 951.547 976.837 
9636 5 1 943.771 951.387 976.649 
22003 12 1 944.03 956.351 974.758 
19357 10 1 949.33 956.871 973.463 
19360 10 1 949.5 955.597 976.009 
22004 12 1 943.93 957.276 975.965 
19359 10 1 948.166 956.269 975.519 
19282 10 1 945.817 959.925 972.132 
19283 10 1 945.504 958.432 971.877 
19358 10 1 948.628 957.461 974.641 
22005 12 1 943.683 958.708 975.555 
8836 5 1 949.117 959.985 977.697 
22006 12 1 943.701 959.555 976.783 
19279 10 1 945.792 962.874 971.561 
19278 10 1 946.183 964.259 972.164 
19276 10 1 948.659 963.967 972.085 
19280 10 1 944.773 962.102 972.455 
19277 10 1 947.437 964.803 971.595 
19281 10 1 944.498 960.75 971.832 
8831 5 1 947.636 964.346 976.448 
8832 5 1 946.898 962.991 976.364 
8833 5 1 947.883 961.888 975.884 
22007 12 1 943.353 961.101 976.525 
8834 5 1 947.324 960.497 976.326 
8830 5 1 946.633 965.523 976.528 
8835 5 1 947.582 960.267 977.777 
22008 12 1 943.144 961.823 977.825 
32320 17 1 945.456 969.472 974.382 
32319 17 1 944.077 968.787 974.092 
32318 17 1 944.292 967.487 973.487 
32321 17 1 945.104 970.67 975.286 
8829 5 1 947.422 966.826 976.393 
32322 17 1 944.479 969.997 976.556 
8828 5 1 948.047 967.061 977.708 
8827 5 1 948.747 968.432 977.671 
32323 17 1 943.761 970.926 977.517 
8992 5 1 945.995 946.813 980.972 
8993 5 1 947.49 946.4 981.251 
8994 5 1 947.778 944.942 980.925 
8995 5 1 947.407 944.525 979.496 
8990 5 1 944.551 948.703 981.357 
8991 5 1 945.944 948.251 981.648 
8987 5 1 945.035 952.451 981.538 
8986 5 1 945.479 953.473 980.417 
8988 5 1 945.189 951.029 980.958 
9589 5 1 948.741 952.42 982.663 
8989 5 1 944.38 950.099 981.952 
9588 5 1 948.362 950.963 983.044 
9587 5 1 948.927 950.838 984.389 
9586 5 1 948.229 951.833 985.283 
8961 5 1 943.683 949.022 985.747 
8983 5 1 945.903 957.252 980.548 
8984 5 1 945.422 955.975 979.918 
8985 5 1 945.465 954.897 981.025 
9817 5 1 944.367 955.992 985.382 
9818 5 1 945.831 955.546 985.251 
9816 5 1 943.39 954.949 984.931 
8837 5 1 949.317 958.985 978.878 
8982 5 1 944.774 957.695 981.339 
8981 5 1 945.001 959.14 981.84 
8980 5 1 944.032 959.46 982.899 
150 1 1 944.58 965.012 981.317 
9827 5 1 949.318 963.751 981.822 
9828 5 1 949.54 965.19 981.238 
9825 5 1 947.91 962.188 983.238 
9826 5 1 948.399 963.613 983.072 
149 1 1 944.5 963.984 982.506 
9824 5 1 947.472 961.914 984.661 
9823 5 1 947.34 960.418 984.854 
148 1 1 943.46 964.441 983.563 
147 1 1 943.455 963.273 984.581 
151 1 1 944.839 966.408 981.94 
154 1 1 946.441 968.998 981.398 
155 1 1 946.901 970.395 981.932 
152 1 1 944.573 967.468 980.84 
153 1 1 944.916 968.779 981.596 
156 1 1 948.407 970.39 982.207 
22023 12 1 946.417 970.446 985.498 
22020 12 1 943.556 969.268 985.389 
8956 5 1 948.486 946.074 986.068 
8959 5 1 945.679 947.611 986.003 
8958 5 1 946.417 946.967 987.178 
8957 5 1 947.938 946.982 987.147 
8960 5 1 944.161 947.707 986.294 
22551 12 1 946.751 943.139 989.148 
22552 12 1 945.197 943.205 989.256 
9500 5 1 946.613 948.137 991.639 
9499 5 1 948.053 948.69 991.633 
9498 5 1 948.95 947.515 991.872 
22549 12 1 948.821 943.573 990.316 
32368 17 1 943.264 945.047 992.158 
22550 12 1 947.353 943.179 990.521 
9585 5 1 948.7 951.482 986.687 
9584 5 1 947.889 952.375 987.629 
9582 5 1 949.485 952.441 989.601 
9583 5 1 948.09 952.109 989.159 
9506 5 1 943.979 954.171 989.901 
9501 5 1 945.752 949.368 991.68 
9502 5 1 944.848 949.302 990.4 
9507 5 1 945.382 954.433 990.432 
9581 5 1 949.455 952.214 991.106 
9503 5 1 943.767 950.363 990.402 
9504 5 1 944.38 951.728 990.154 
9505 5 1 943.414 952.891 990.528 
9819 5 1 946.698 956.441 986.247 
9511 5 1 949.351 956.533 990.602 
9510 5 1 948.219 955.756 990.014 
9509 5 1 947.018 956.388 990.652 
9508 5 1 945.736 955.831 990.014 
9821 5 1 947.209 958.894 986.878 
24293 13 1 943.731 959.928 989.138 
9820 5 1 946.359 957.912 986.063 
9822 5 1 946.899 960.309 986.344 
23947 12 1 949.219 961.431 989.913 
12564 7 1 946.508 963.996 987.577 
12565 7 1 945.833 964.766 988.777 
12563 7 1 947.674 964.809 987.058 
12562 7 1 948.814 964.902 988.06 
24292 13 1 944.138 961.29 989.805 
23950 12 1 949.125 963.803 992.086 
23949 12 1 949.664 962.39 992.135 
23948 12 1 948.898 961.311 991.34 
24290 13 1 943.09 963.444 990.556 
12566 7 1 944.936 965.914 988.199 
22024 12 1 947.187 969.393 986.372 
22021 12 1 944.182 969.818 986.636 
22025 12 1 948.143 970.138 987.315 
22026 12 1 949.27 970.748 986.494 
12567 7 1 944.52 966.835 989.384 
22022 12 1 945.257 970.924 986.453 
12569 7 1 945.605 967.779 991.419 
12570 7 1 944.755 966.785 992.143 
128 1 1 949.763 971.111 991.381 
129 1 1 948.355 971.392 990.853 
12572 7 1 943.12 968.487 992.846 
12568 7 1 945.906 967.267 989.986 
9497 5 1 948.643 946.963 993.304 
9496 5 1 949.457 945.843 993.877 
32372 17 1 944.454 946.588 996.097 
32268 17 1 947.403 943.505 996.645 
32371 17 1 943.598 945.312 995.897 
32370 17 1 943.678 944.751 994.509 
32369 17 1 943.28 945.795 993.484 
32374 17 1 945.223 947.899 998.008 
32375 17 1 946.571 947.944 997.228 
32266 17 1 949.596 944.191 997.81 
32267 17 1 948.175 943.689 997.93 
32373 17 1 944.533 946.616 997.595 
39937 20 1 944.234 951.738 994.696 
39938 20 1 943.874 950.621 995.583 
39936 20 1 945.722 951.832 994.795 
39935 20 1 946.237 953.228 994.331 
39934 20 1 947.685 953.325 994.708 
32378 17 1 949.3 950.475 996.574 
32377 17 1 948.512 949.184 996.598 
32376 17 1 947.164 949.31 997.36 
15982 8 1 948.084 953.463 998.785 
39932 20 1 949.54 954.839 995.029 
39933 20 1 948.12 954.796 994.63 
39930 20 1 948.973 957.002 996.183 
15986 8 1 945.52 956.669 997.4 
15985 8 1 945.344 956.17 998.843 
15983 8 1 947.5 954.814 998.649 
15984 8 1 946.008 954.81 999.025 
39929 20 1 948.961 958.52 995.873 
21454 11 1 944.378 959.173 993.131 
21453 11 1 943.632 958.194 993.964 
15990 8 1 943.425 960.132 999.424 
15987 8 1 944.94 958.078 997.352 
15988 8 1 943.516 958.016 997.947 
23951 12 1 949.684 964.419 993.341 
21455 11 1 945.141 960.213 993.993 
21456 11 1 944.227 961.027 994.862 
21457 11 1 944.756 961.968 995.978 
21460 11 1 945.588 965.537 995.804 
23952 12 1 948.952 965.757 993.392 
21458 11 1 945.523 963.094 995.333 
21459 11 1 945.624 964.155 996.446 
23957 12 1 947.269 970.26 995.689 
23953 12 1 949.55 966.519 994.562 
23956 12 1 948.756 970.144 995.405 
23955 12 1 949.308 968.756 995.718 
23954 12 1 948.78 967.848 994.677 
12571 7 1 944.051 967.431 993.331 
9959 5 1 949.16 971.252 999.417 
21464 11 1 945.06 968.562 999.202 
21462 11 1 944.647 966.25 998.07 
21463 11 1 945.082 967.045 999.321 
21461 11 1 945.711 966.541 996.956 
15975 8 1 949.019 946.804 1003.1 
26130 14 1 945.629 943.456 1000.6 
15977 8 1 947.286 948.682 1002.43 
30499 16 1 944.606 945.975 1006.18 
15976 8 1 947.882 947.746 1003.54 
15971 8 1 947.885 944.192 1006.65 
30501 16 1 943.543 946.58 1003.91 
15972 8 1 948.231 943.667 1005.3 
30500 16 1 943.311 946.43 1005.37 
15974 8 1 949.081 945.864 1004.27 
15973 8 1 947.955 944.727 1004.23 
15979 8 1 947.709 950.915 1001.45 
15981 8 1 947.786 953.08 1000.18 
15980 8 1 948.581 951.824 1000.61 
15978 8 1 948.351 949.549 1001.76 
32475 17 1 945.321 952.71 1005.3 
32477 17 1 946.322 950.557 1006.32 
32476 17 1 945.392 951.14 1005.18 
32474 17 1 944.861 953.444 1004.05 
32470 17 1 948.798 956.556 1004.36 
32471 17 1 947.278 956.462 1003.93 
32473 17 1 945.248 954.933 1004.11 
32472 17 1 946.789 955.064 1004.18 
32247 17 1 947.084 959.522 1000.7 
32246 17 1 946.963 959.939 1002.14 
32245 17 1 945.549 959.632 1002.57 
32248 17 1 948.481 959.812 1000.28 
32249 17 1 949.277 958.522 1000.18 
32469 17 1 949.426 957.942 1004.1 
32243 17 1 946.043 959.81 1004.95 
15994 8 1 945.134 963.511 1001.41 
15999 8 1 949.65 963.832 1002.71 
15993 8 1 944.552 962.785 1000.2 
15998 8 1 949.13 964.512 1001.47 
15995 8 1 946.476 964.12 1001.12 
15992 8 1 943.301 962.111 1000.78 
15997 8 1 948.186 965.707 1001.84 
15996 8 1 946.867 965.085 1002.29 
32242 17 1 945.696 960.566 1006.22 
32240 17 1 947.928 961.073 1006.73 
32244 17 1 945.163 960.396 1003.86 
21465 11 1 945.471 969.138 1000.5 
21467 11 1 945.79 971.172 1001.66 
9957 5 1 949.641 969.756 1001.22 
21466 11 1 945.208 970.616 1000.38 
21542 11 1 947.925 969.83 1005.72 
21547 11 1 944.662 966.574 1007.05 
21544 11 1 945.928 968.659 1006.07 
21545 11 1 946.789 967.481 1006.3 
21543 11 1 946.644 969.48 1005.03 
21541 11 1 947.567 970.816 1006.89 
30498 16 1 944.194 946.075 1007.7 
31665 16 1 949.689 947.767 1008.15 
31666 16 1 948.857 947.821 1009.4 
15970 8 1 947.26 943.159 1007.55 
30497 16 1 943.589 947.48 1007.99 
30496 16 1 943.304 947.844 1009.42 
31619 16 1 945.509 945.278 1012.11 
31621 16 1 946.075 947.307 1013.64 
31620 16 1 946.638 946.117 1012.83 
31622 16 1 947.177 948.375 1014.02 
31618 16 1 946.255 943.958 1011.62 
31667 16 1 949.064 946.635 1010.32 
32478 17 1 945.583 950.942 1007.64 
32479 17 1 946.51 950.635 1008.78 
32480 17 1 946.319 951.694 1009.82 
32485 17 1 949.551 954.256 1012.12 
51762 26 1 945.455 953.909 1013.4 
32484 17 1 949.588 952.745 1012.37 
32481 17 1 947.424 951.429 1010.85 
32482 17 1 948.617 952.095 1010.25 
51756 26 1 943.12 957.157 1008.13 
32488 17 1 949.569 957.114 1013.05 
51759 26 1 943.368 955.652 1010.77 
51761 26 1 944.644 954.976 1012.68 
51760 26 1 944.062 954.464 1011.39 
32491 17 1 947.007 958.677 1013.01 
32490 17 1 948.353 959.257 1013.34 
32494 17 1 944.248 959.979 1011.87 
32492 17 1 946.564 958.929 1011.51 
32493 17 1 944.974 958.775 1011.38 
32489 17 1 949.622 958.575 1012.82 
32241 17 1 946.693 960.428 1007.37 
32239 17 1 949.156 960.966 1007.58 
32238 17 1 948.948 961.327 1009.07 
32237 17 1 948.813 962.868 1009.16 
21549 11 1 944.446 965 1009.02 
21554 11 1 943.551 964.697 1013.58 
21553 11 1 944.849 964.389 1012.87 
21552 11 1 945.055 965.573 1011.89 
32236 17 1 948.827 963.423 1010.57 
21550 11 1 943.509 964.82 1010.17 
32235 17 1 949.169 964.822 1010.37 
21548 11 1 943.842 966.214 1008.25 
21546 11 1 946.085 966.725 1007.46 
21551 11 1 943.762 965.933 1011.12 
6819 4 1 948.844 969.759 1011.1 
21062 11 1 943.761 969.944 1010.61 
21065 11 1 945.776 971.457 1012.51 
6816 4 1 948.304 967.29 1013.92 
6817 4 1 948.016 968.642 1013.21 
6818 4 1 948.682 968.47 1011.86 
21063 11 1 944.507 971.341 1010.32 
31623 16 1 948.214 947.577 1014.83 
31624 16 1 949.278 948.533 1015.38 
30552 16 1 944.841 943.213 1018.77 
32612 17 1 949.155 945.958 1021.02 
30556 16 1 948.876 944.477 1016.9 
30551 16 1 943.445 943.5 1018.32 
30553 16 1 945.792 943.435 1017.62 
30550 16 1 943.301 944.8 1017.56 
30555 16 1 948.34 943.122 1017.28 
30554 16 1 947.21 943.193 1018.27 
51764 26 1 946.704 953.566 1015.36 
51765 26 1 947.658 954.243 1016.3 
10029 6 1 943.411 949.303 1015.48 
10026 6 1 944.479 949.559 1019.19 
10025 6 1 945.821 949.379 1019.83 
10024 6 1 946.69 950.544 1019.36 
21140 11 1 944.384 954.053 1020.12 
51766 26 1 948.253 953.173 1017.23 
10027 6 1 944.541 949.319 1017.69 
51767 26 1 949.405 953.756 1018.14 
10023 6 1 948.028 950.327 1020.13 
10028 6 1 943.211 949.663 1016.94 
21139 11 1 943.069 953.499 1019.54 
51763 26 1 946.259 954.597 1014.41 
21143 11 1 944.549 957.236 1018 
21141 11 1 945.005 955.134 1019.14 
51768 26 1 948.834 954.815 1019.08 
51770 26 1 949.504 956.161 1021.11 
21142 11 1 944.168 956.389 1019.14 
21145 11 1 946.447 958.626 1017.13 
21144 11 1 946.038 957.642 1018.1 
21146 11 1 945.395 959.718 1017.07 
21555 11 1 943.881 965.809 1014.61 
21147 11 1 945.872 960.77 1016.11 
21148 11 1 945.007 962.041 1016.4 
6812 4 1 948.634 963.521 1015.63 
6813 4 1 947.776 964.73 1015.22 
21083 11 1 945.907 960.827 1021.31 
21082 11 1 947.349 960.377 1021.35 
21080 11 1 947.747 962.554 1020.24 
21079 11 1 948.624 963.763 1020.43 
21149 11 1 944.963 962.594 1017.88 
21151 11 1 943.64 964.029 1019.43 
21150 11 1 943.973 963.707 1017.97 
21085 11 1 943.468 960.41 1021.22 
6814 4 1 948.221 965.934 1016 
6815 4 1 947.792 967.265 1015.29 
21158 11 1 943.141 971.325 1016.4 
21155 11 1 945.011 968.406 1018.22 
21156 11 1 944.622 969.832 1018.08 
21154 11 1 943.802 967.673 1018.69 
21153 11 1 944.215 966.23 1018.92 
21157 11 1 943.501 969.904 1017 
21070 11 1 948.985 970.966 1017.23 
32610 17 1 946.837 945.875 1021.79 
32611 17 1 948.226 945.514 1022.13 
32609 17 1 946.073 946.256 1023.02 
32608 17 1 944.506 946.193 1022.84 
32607 17 1 944.078 944.795 1022.37 
50135 26 1 948.03 947.346 1027.49 
50136 26 1 947.22 948.596 1027.06 
50137 26 1 945.84 948.738 1027.61 
50138 26 1 944.962 947.463 1027.44 
50139 26 1 943.578 947.777 1027.96 
50134 26 1 949.456 947.431 1026.86 
50133 26 1 949.47 947.499 1025.31 
28139 15 1 948.519 943.758 1026.61 
21137 11 1 943.197 952.261 1021.66 
10021 6 1 948.765 949.994 1022.47 
10022 6 1 947.799 950.838 1021.6 
21135 11 1 943.187 951.295 1024.04 
21134 11 1 944.528 952.049 1024.06 
21133 11 1 945.336 951.764 1025.35 
21132 11 1 946.578 952.58 1025.42 
21131 11 1 947.218 952.356 1026.82 
21130 11 1 947.991 953.658 1027.19 
51771 26 1 948.235 955.479 1021.72 
51772 26 1 947.486 956.483 1022.64 
51773 26 1 946.226 955.772 1023.32 
51775 26 1 944.681 955.813 1025.32 
51774 26 1 945.846 956.488 1024.65 
51776 26 1 944.279 956.588 1026.52 
51777 26 1 943.358 955.885 1027.49 
21084 11 1 944.829 959.769 1021.48 
32671 17 1 948.849 959.81 1028.25 
32670 17 1 947.811 959.513 1027.16 
32669 17 1 948.498 959.399 1025.81 
32668 17 1 949.492 958.289 1025.89 
21081 11 1 948.134 961.654 1021.38 
46381 24 1 946.936 963.437 1026.19 
46380 24 1 946.119 962.828 1025.08 
46382 24 1 945.946 963.675 1027.4 
46378 24 1 946.282 964.735 1023.45 
46379 24 1 945.273 963.94 1024.35 
46372 24 1 949.094 970.503 1022.71 
46377 24 1 945.472 965.853 1022.68 
12394 7 1 944.3 971.217 1023.34 
46376 24 1 946.348 966.651 1021.71 
46374 24 1 948.334 968.338 1021.98 
46375 24 1 947.152 967.595 1022.63 
46373 24 1 949.229 969.011 1023.02 
12392 7 1 945.377 970.592 1025.26 
12390 7 1 946.687 969.813 1027.19 
12389 7 1 948.004 969.197 1026.65 
12391 7 1 945.347 969.606 1026.49 
12393 7 1 944.397 970.094 1024.28 
12388 7 1 948.051 967.723 1027.09 
12387 7 1 949.176 967.114 1026.37 
35939 18 1 944.627 945.727 1032.06 
35941 18 1 947.169 945.74 1031.75 
35940 18 1 945.83 945.253 1031.19 
35942 18 1 948.383 945.164 1030.9 
35937 18 1 943.326 943.635 1032.13 
35944 18 1 949.739 943.139 1030.56 
35943 18 1 948.56 943.682 1031.27 
21109 11 1 943.447 948.148 1035.48 
35938 18 1 943.506 944.952 1031.33 
33017 17 1 945.914 943.839 1035.39 
21129 11 1 948.684 953.359 1028.55 
33113 17 1 948.11 949.34 1031.58 
33108 17 1 943.411 951.891 1031.38 
33109 17 1 943.94 950.491 1031.8 
33112 17 1 947.534 949.43 1032.93 
51784 26 1 945.421 954.012 1034.18 
51785 26 1 946.374 953.098 1034.96 
51782 26 1 945.767 954.431 1031.81 
33111 17 1 946.006 949.422 1032.72 
33110 17 1 945.435 950.609 1031.91 
33114 17 1 949.618 949.317 1031.44 
21128 11 1 949.458 954.658 1028.79 
51779 26 1 944.435 956.848 1029.27 
51778 26 1 943.077 956.891 1028.59 
51780 26 1 944.672 955.558 1030.07 
51783 26 1 946.332 954.787 1033.18 
51781 26 1 945.928 955.587 1030.93 
32677 17 1 944.284 960.113 1033.2 
32675 17 1 946.396 959.817 1031.87 
32678 17 1 944.051 958.658 1033.31 
32679 17 1 944.442 958.076 1034.67 
32674 17 1 947.858 959.847 1031.98 
32680 17 1 943.161 958.254 1035.55 
32673 17 1 948.614 959.494 1030.69 
46383 24 1 946.562 964.022 1028.75 
32672 17 1 948.097 960.249 1029.48 
46384 24 1 945.601 964.287 1029.87 
46385 24 1 944.701 965.567 1029.75 
32676 17 1 945.857 960.361 1033.18 
46339 24 1 945.751 964.619 1035.03 
46337 24 1 943.706 965.668 1034.05 
46338 24 1 944.33 964.329 1034.37 
46386 24 1 945.737 966.708 1030.01 
46333 24 1 943.235 969.9 1033.17 
46335 24 1 944.038 968.02 1034.82 
46391 24 1 947.561 969.397 1034.71 
46389 24 1 948.009 967.968 1032.78 
46388 24 1 947.466 967.545 1031.37 
46390 24 1 947.295 969.193 1033.18 
46392 24 1 947.386 970.847 1035.17 
46336 24 1 943.776 966.606 1035.3 
46387 24 1 946.131 966.92 1031.42 
33016 17 1 944.66 943.68 1036.26 
21110 11 1 943.624 947.407 1036.76 
21112 11 1 945.992 947.317 1036.82 
18934 10 1 947.167 945.683 1041.62 
18935 10 1 945.826 944.96 1041.63 
18936 10 1 944.701 945.762 1042.27 
33015 17 1 944.935 943.232 1037.69 
21111 11 1 944.823 948.047 1037.54 
33014 17 1 943.62 943.109 1038.55 
21113 11 1 947.304 947.533 1037.63 
51786 26 1 945.693 952.428 1036.13 
51787 26 1 945.278 953.451 1037.29 
21115 11 1 948.867 949.24 1038.48 
21114 11 1 947.649 948.978 1037.55 
21116 11 1 949.444 950.636 1038.29 
51789 26 1 945.469 952.011 1039.36 
51791 26 1 945.615 950.123 1040.93 
51790 26 1 944.689 951.089 1040.27 
51792 26 1 946.494 951.031 1041.93 
51793 26 1 947.755 950.226 1042.26 
51788 26 1 944.461 952.753 1038.38 
32686 17 1 943.586 955.452 1041.27 
46611 24 1 948.033 955.479 1041.06 
46610 24 1 949.303 954.935 1041.73 
46612 24 1 948.01 954.861 1039.6 
46614 24 1 949.147 954.515 1037.47 
46613 24 1 948.87 955.503 1038.57 
32687 17 1 943.556 954.654 1042.6 
53389 27 1 948.154 959.139 1036.77 
53394 27 1 946.766 959.467 1041.44 
53391 27 1 947 960.058 1038.67 
32681 17 1 943.378 957.634 1036.97 
53390 27 1 946.794 959.521 1037.26 
46340 24 1 946.57 963.484 1035.64 
46341 24 1 947.922 964.161 1035.96 
53388 27 1 948.839 960.396 1036.38 
53393 27 1 945.95 960.619 1040.84 
53392 27 1 945.715 960.382 1039.33 
46593 24 1 944.93 964.335 1042.55 
47263 24 1 949.418 962.658 1041.8 
46592 24 1 943.81 964.96 1041.77 
46591 24 1 944.402 965.206 1040.36 
47264 24 1 949.243 964.059 1041.35 
46342 24 1 947.605 965.233 1036.96 
47265 24 1 948.721 964.957 1042.54 
46590 24 1 943.595 966.325 1039.65 
46587 24 1 944.036 969.984 1038.73 
46344 24 1 948.562 967.421 1037.95 
46589 24 1 944.341 967.58 1039.33 
46343 24 1 948.819 966.115 1037.18 
47266 24 1 948.084 966.192 1041.95 
46588 24 1 943.502 968.614 1038.6 
47268 24 1 947.34 968.568 1042.36 
46346 24 1 949.535 969.371 1038.92 
46586 24 1 943.352 970.951 1037.69 
18933 10 1 947.541 946.054 1043.06 
18932 10 1 948.977 946.66 1043.21 
18937 10 1 943.689 944.817 1042.83 
36721 19 1 944.376 946.66 1049.01 
36722 19 1 943.962 945.182 1049.47 
36719 19 1 943.84 947.342 1046.78 
18929 10 1 949.01 947.209 1046.85 
18928 10 1 949.07 945.724 1047.35 
18930 10 1 948.586 947.188 1045.41 
36718 19 1 944.814 948.412 1046.98 
18927 10 1 949.339 945.652 1048.83 
18931 10 1 949.476 946.347 1044.63 
36720 19 1 943.215 947.13 1048.15 
51794 26 1 948.584 951.024 1043.19 
36717 19 1 944.997 949.155 1045.66 
36716 19 1 943.657 949.674 1045.04 
50101 26 1 946.389 950.896 1049.32 
32690 17 1 946.027 953.666 1045.24 
32689 17 1 944.939 953.589 1044.22 
50103 26 1 948.442 951.032 1048.05 
32692 17 1 944.603 954.207 1047.22 
50102 26 1 947.784 950.418 1049.29 
36715 19 1 943.079 950.682 1046.06 
46608 24 1 949.378 956.664 1043.53 
46609 24 1 949.281 955.172 1043.22 
32688 17 1 944.936 954.724 1043.27 
32694 17 1 943.218 954.833 1049.15 
46605 24 1 949.108 956.931 1047.21 
32693 17 1 944.431 955.31 1048.28 
32691 17 1 945.732 954.721 1046.34 
46606 24 1 949.238 956.311 1045.87 
53395 27 1 946.481 959.566 1042.99 
53396 27 1 945.017 959.371 1043.3 
46603 24 1 947.702 958.731 1048.46 
46604 24 1 947.848 957.728 1047.21 
53397 27 1 944.903 958.918 1044.78 
46602 24 1 946.305 959.4 1048.38 
53398 27 1 943.418 958.539 1045.01 
46599 24 1 944.666 961.867 1047.96 
51831 26 1 948.723 963.821 1049.23 
46598 24 1 945.58 963.1 1047.96 
46597 24 1 945.516 963.875 1046.58 
46600 24 1 944.734 961.105 1049.29 
46594 24 1 944.396 963.679 1043.83 
46601 24 1 946.152 960.452 1049.42 
46595 24 1 944.026 964.766 1044.82 
46596 24 1 944.078 964.266 1046.27 
47270 24 1 946.077 970.564 1042.8 
47267 24 1 947.956 967.301 1042.94 
47269 24 1 947.175 969.729 1043.37 
51865 26 1 945.908 969.087 1049.02 
51866 26 1 947.17 968.62 1048.24 
51867 26 1 948.368 968.567 1049.22 
51868 26 1 949.487 967.863 1048.44 
51863 26 1 943.657 970.064 1048.52 
51864 26 1 944.778 969.161 1048.01 
51862 26 1 943.553 971.399 1047.71 
19473 10 1 945.989 946.323 1053.05 
19474 10 1 946.261 947.358 1054.17 
19471 10 1 946.73 944.24 1051.92 
19472 10 1 947.171 945.279 1052.92 
19475 10 1 947.697 947.894 1053.9 
19476 10 1 948.25 948.738 1055.05 
19470 10 1 947.896 943.207 1051.78 
50098 26 1 943.413 950.391 1051.47 
24754 13 1 945.873 952.065 1056.61 
19477 10 1 949.663 949.254 1054.89 
50099 26 1 944.248 950.951 1050.36 
24753 13 1 944.666 952.084 1055.68 
24748 13 1 947.374 954.183 1051.92 
24747 13 1 948.159 954.284 1050.62 
24752 13 1 944.677 953.461 1055.01 
24751 13 1 945.64 953.612 1053.75 
24746 13 1 949.334 953.324 1050.71 
50100 26 1 945.697 950.484 1050.56 
24750 13 1 945.601 955.061 1053.28 
24749 13 1 946.034 954.945 1051.79 
53410 27 1 945.132 959.753 1053.52 
46639 24 1 948.713 960.008 1055.49 
46640 24 1 947.823 958.869 1056.05 
46638 24 1 949.373 959.616 1054.16 
53409 27 1 944.142 959.268 1052.39 
53411 27 1 944.559 961.054 1054.1 
53412 27 1 945.376 961.332 1055.35 
53413 27 1 945.171 962.702 1055.83 
53416 27 1 946.03 965.11 1056.69 
51835 26 1 946.144 965.462 1052.37 
51834 26 1 947.567 965.22 1051.8 
51833 26 1 947.717 963.688 1051.57 
51836 26 1 945.114 965.15 1051.34 
51832 26 1 948.952 963.346 1050.7 
53419 27 1 946.192 968.741 1055.5 
53420 27 1 944.85 968.55 1054.77 
53418 27 1 946.875 967.391 1055.86 
51837 26 1 943.824 965.856 1051.74 
53422 27 1 945.305 970.871 1053.71 
53421 27 1 944.324 969.954 1054.44 
53417 27 1 945.818 966.621 1056.7 
49354 25 1 947.029 976.941 947.327 
53427 27 1 946.754 973.169 943.923 
49353 25 1 946.614 977.106 948.795 
49348 25 1 944.69 972.11 947.765 
49349 25 1 944.571 972.602 949.241 
53426 27 1 945.445 973.509 943.184 
49350 25 1 945.83 973.38 949.599 
49351 25 1 945.852 974.7 948.894 
53428 27 1 946.739 971.687 944.352 
49352 25 1 946.685 975.751 949.603 
49347 25 1 943.304 971.622 947.433 
47830 24 1 949.549 973.534 949.839 
47831 24 1 949.689 972.083 949.947 
49355 25 1 946.764 978.146 946.503 
49356 25 1 946.983 977.713 945.041 
49357 25 1 948.494 977.809 944.738 
49358 25 1 948.719 977.507 943.269 
5757 3 1 943.406 979.401 943.578 
6666 4 1 948.382 981.292 948.573 
5759 3 1 945.128 981.153 943.523 